# vtk DataFile Version 4.0
vtk output
ASCII
DATASET UNSTRUCTURED_GRID
POINTS 4096 float
0.0000000e+00 0.0000000e+00 1.0000000e+01 
0.0000000e+00 0.0000000e+00 0.0000000e+00 
0.0000000e+00 5.0000000e+00 1.0000000e+01 
0.0000000e+00 5.0000000e+00 0.0000000e+00 
2.0000000e+00 0.0000000e+00 1.0000000e+01 
2.0000000e+00 0.0000000e+00 0.0000000e+00 
2.0000000e+00 5.0000000e+00 1.0000000e+01 
2.0000000e+00 5.0000000e+00 0.0000000e+00 
0.0000000e+00 0.0000000e+00 6.6666667e-01 
0.0000000e+00 0.0000000e+00 1.3333333e+00 
0.0000000e+00 0.0000000e+00 2.0000000e+00 
0.0000000e+00 0.0000000e+00 2.6666667e+00 
0.0000000e+00 0.0000000e+00 3.3333333e+00 
0.0000000e+00 0.0000000e+00 4.0000000e+00 
0.0000000e+00 0.0000000e+00 4.6666667e+00 
0.0000000e+00 0.0000000e+00 5.3333333e+00 
0.0000000e+00 0.0000000e+00 6.0000000e+00 
0.0000000e+00 0.0000000e+00 6.6666667e+00 
0.0000000e+00 0.0000000e+00 7.3333333e+00 
0.0000000e+00 0.0000000e+00 8.0000000e+00 
0.0000000e+00 0.0000000e+00 8.6666667e+00 
0.0000000e+00 0.0000000e+00 9.3333333e+00 
0.0000000e+00 3.3333333e-01 1.0000000e+01 
0.0000000e+00 6.6666667e-01 1.0000000e+01 
0.0000000e+00 1.0000000e+00 1.0000000e+01 
0.0000000e+00 1.3333333e+00 1.0000000e+01 
0.0000000e+00 1.6666667e+00 1.0000000e+01 
0.0000000e+00 2.0000000e+00 1.0000000e+01 
0.0000000e+00 2.3333333e+00 1.0000000e+01 
0.0000000e+00 2.6666667e+00 1.0000000e+01 
0.0000000e+00 3.0000000e+00 1.0000000e+01 
0.0000000e+00 3.3333333e+00 1.0000000e+01 
0.0000000e+00 3.6666667e+00 1.0000000e+01 
0.0000000e+00 4.0000000e+00 1.0000000e+01 
0.0000000e+00 4.3333333e+00 1.0000000e+01 
0.0000000e+00 4.6666667e+00 1.0000000e+01 
0.0000000e+00 5.0000000e+00 6.6666667e-01 
0.0000000e+00 5.0000000e+00 1.3333333e+00 
0.0000000e+00 5.0000000e+00 2.0000000e+00 
0.0000000e+00 5.0000000e+00 2.6666667e+00 
0.0000000e+00 5.0000000e+00 3.3333333e+00 
0.0000000e+00 5.0000000e+00 4.0000000e+00 
0.0000000e+00 5.0000000e+00 4.6666667e+00 
0.0000000e+00 5.0000000e+00 5.3333333e+00 
0.0000000e+00 5.0000000e+00 6.0000000e+00 
0.0000000e+00 5.0000000e+00 6.6666667e+00 
0.0000000e+00 5.0000000e+00 7.3333333e+00 
0.0000000e+00 5.0000000e+00 8.0000000e+00 
0.0000000e+00 5.0000000e+00 8.6666667e+00 
0.0000000e+00 5.0000000e+00 9.3333333e+00 
0.0000000e+00 3.3333333e-01 0.0000000e+00 
0.0000000e+00 6.6666667e-01 0.0000000e+00 
0.0000000e+00 1.0000000e+00 0.0000000e+00 
0.0000000e+00 1.3333333e+00 0.0000000e+00 
0.0000000e+00 1.6666667e+00 0.0000000e+00 
0.0000000e+00 2.0000000e+00 0.0000000e+00 
0.0000000e+00 2.3333333e+00 0.0000000e+00 
0.0000000e+00 2.6666667e+00 0.0000000e+00 
0.0000000e+00 3.0000000e+00 0.0000000e+00 
0.0000000e+00 3.3333333e+00 0.0000000e+00 
0.0000000e+00 3.6666667e+00 0.0000000e+00 
0.0000000e+00 4.0000000e+00 0.0000000e+00 
0.0000000e+00 4.3333333e+00 0.0000000e+00 
0.0000000e+00 4.6666667e+00 0.0000000e+00 
2.0000000e+00 0.0000000e+00 6.6666667e-01 
2.0000000e+00 0.0000000e+00 1.3333333e+00 
2.0000000e+00 0.0000000e+00 2.0000000e+00 
2.0000000e+00 0.0000000e+00 2.6666667e+00 
2.0000000e+00 0.0000000e+00 3.3333333e+00 
2.0000000e+00 0.0000000e+00 4.0000000e+00 
2.0000000e+00 0.0000000e+00 4.6666667e+00 
2.0000000e+00 0.0000000e+00 5.3333333e+00 
2.0000000e+00 0.0000000e+00 6.0000000e+00 
2.0000000e+00 0.0000000e+00 6.6666667e+00 
2.0000000e+00 0.0000000e+00 7.3333333e+00 
2.0000000e+00 0.0000000e+00 8.0000000e+00 
2.0000000e+00 0.0000000e+00 8.6666667e+00 
2.0000000e+00 0.0000000e+00 9.3333333e+00 
2.0000000e+00 3.3333333e-01 1.0000000e+01 
2.0000000e+00 6.6666667e-01 1.0000000e+01 
2.0000000e+00 1.0000000e+00 1.0000000e+01 
2.0000000e+00 1.3333333e+00 1.0000000e+01 
2.0000000e+00 1.6666667e+00 1.0000000e+01 
2.0000000e+00 2.0000000e+00 1.0000000e+01 
2.0000000e+00 2.3333333e+00 1.0000000e+01 
2.0000000e+00 2.6666667e+00 1.0000000e+01 
2.0000000e+00 3.0000000e+00 1.0000000e+01 
2.0000000e+00 3.3333333e+00 1.0000000e+01 
2.0000000e+00 3.6666667e+00 1.0000000e+01 
2.0000000e+00 4.0000000e+00 1.0000000e+01 
2.0000000e+00 4.3333333e+00 1.0000000e+01 
2.0000000e+00 4.6666667e+00 1.0000000e+01 
2.0000000e+00 5.0000000e+00 6.6666667e-01 
2.0000000e+00 5.0000000e+00 1.3333333e+00 
2.0000000e+00 5.0000000e+00 2.0000000e+00 
2.0000000e+00 5.0000000e+00 2.6666667e+00 
2.0000000e+00 5.0000000e+00 3.3333333e+00 
2.0000000e+00 5.0000000e+00 4.0000000e+00 
2.0000000e+00 5.0000000e+00 4.6666667e+00 
2.0000000e+00 5.0000000e+00 5.3333333e+00 
2.0000000e+00 5.0000000e+00 6.0000000e+00 
2.0000000e+00 5.0000000e+00 6.6666667e+00 
2.0000000e+00 5.0000000e+00 7.3333333e+00 
2.0000000e+00 5.0000000e+00 8.0000000e+00 
2.0000000e+00 5.0000000e+00 8.6666667e+00 
2.0000000e+00 5.0000000e+00 9.3333333e+00 
2.0000000e+00 3.3333333e-01 0.0000000e+00 
2.0000000e+00 6.6666667e-01 0.0000000e+00 
2.0000000e+00 1.0000000e+00 0.0000000e+00 
2.0000000e+00 1.3333333e+00 0.0000000e+00 
2.0000000e+00 1.6666667e+00 0.0000000e+00 
2.0000000e+00 2.0000000e+00 0.0000000e+00 
2.0000000e+00 2.3333333e+00 0.0000000e+00 
2.0000000e+00 2.6666667e+00 0.0000000e+00 
2.0000000e+00 3.0000000e+00 0.0000000e+00 
2.0000000e+00 3.3333333e+00 0.0000000e+00 
2.0000000e+00 3.6666667e+00 0.0000000e+00 
2.0000000e+00 4.0000000e+00 0.0000000e+00 
2.0000000e+00 4.3333333e+00 0.0000000e+00 
2.0000000e+00 4.6666667e+00 0.0000000e+00 
1.3333333e-01 0.0000000e+00 0.0000000e+00 
2.6666667e-01 0.0000000e+00 0.0000000e+00 
4.0000000e-01 0.0000000e+00 0.0000000e+00 
5.3333333e-01 0.0000000e+00 0.0000000e+00 
6.6666667e-01 0.0000000e+00 0.0000000e+00 
8.0000000e-01 0.0000000e+00 0.0000000e+00 
9.3333333e-01 0.0000000e+00 0.0000000e+00 
1.0666667e+00 0.0000000e+00 0.0000000e+00 
1.2000000e+00 0.0000000e+00 0.0000000e+00 
1.3333333e+00 0.0000000e+00 0.0000000e+00 
1.4666667e+00 0.0000000e+00 0.0000000e+00 
1.6000000e+00 0.0000000e+00 0.0000000e+00 
1.7333333e+00 0.0000000e+00 0.0000000e+00 
1.8666667e+00 0.0000000e+00 0.0000000e+00 
1.3333333e-01 0.0000000e+00 1.0000000e+01 
2.6666667e-01 0.0000000e+00 1.0000000e+01 
4.0000000e-01 0.0000000e+00 1.0000000e+01 
5.3333333e-01 0.0000000e+00 1.0000000e+01 
6.6666667e-01 0.0000000e+00 1.0000000e+01 
8.0000000e-01 0.0000000e+00 1.0000000e+01 
9.3333333e-01 0.0000000e+00 1.0000000e+01 
1.0666667e+00 0.0000000e+00 1.0000000e+01 
1.2000000e+00 0.0000000e+00 1.0000000e+01 
1.3333333e+00 0.0000000e+00 1.0000000e+01 
1.4666667e+00 0.0000000e+00 1.0000000e+01 
1.6000000e+00 0.0000000e+00 1.0000000e+01 
1.7333333e+00 0.0000000e+00 1.0000000e+01 
1.8666667e+00 0.0000000e+00 1.0000000e+01 
1.3333333e-01 5.0000000e+00 0.0000000e+00 
2.6666667e-01 5.0000000e+00 0.0000000e+00 
4.0000000e-01 5.0000000e+00 0.0000000e+00 
5.3333333e-01 5.0000000e+00 0.0000000e+00 
6.6666667e-01 5.0000000e+00 0.0000000e+00 
8.0000000e-01 5.0000000e+00 0.0000000e+00 
9.3333333e-01 5.0000000e+00 0.0000000e+00 
1.0666667e+00 5.0000000e+00 0.0000000e+00 
1.2000000e+00 5.0000000e+00 0.0000000e+00 
1.3333333e+00 5.0000000e+00 0.0000000e+00 
1.4666667e+00 5.0000000e+00 0.0000000e+00 
1.6000000e+00 5.0000000e+00 0.0000000e+00 
1.7333333e+00 5.0000000e+00 0.0000000e+00 
1.8666667e+00 5.0000000e+00 0.0000000e+00 
1.3333333e-01 5.0000000e+00 1.0000000e+01 
2.6666667e-01 5.0000000e+00 1.0000000e+01 
4.0000000e-01 5.0000000e+00 1.0000000e+01 
5.3333333e-01 5.0000000e+00 1.0000000e+01 
6.6666667e-01 5.0000000e+00 1.0000000e+01 
8.0000000e-01 5.0000000e+00 1.0000000e+01 
9.3333333e-01 5.0000000e+00 1.0000000e+01 
1.0666667e+00 5.0000000e+00 1.0000000e+01 
1.2000000e+00 5.0000000e+00 1.0000000e+01 
1.3333333e+00 5.0000000e+00 1.0000000e+01 
1.4666667e+00 5.0000000e+00 1.0000000e+01 
1.6000000e+00 5.0000000e+00 1.0000000e+01 
1.7333333e+00 5.0000000e+00 1.0000000e+01 
1.8666667e+00 5.0000000e+00 1.0000000e+01 
0.0000000e+00 3.3333333e-01 6.6666667e-01 
0.0000000e+00 6.6666667e-01 6.6666667e-01 
0.0000000e+00 1.0000000e+00 6.6666667e-01 
0.0000000e+00 1.3333333e+00 6.6666667e-01 
0.0000000e+00 1.6666667e+00 6.6666667e-01 
0.0000000e+00 2.0000000e+00 6.6666667e-01 
0.0000000e+00 2.3333333e+00 6.6666667e-01 
0.0000000e+00 2.6666667e+00 6.6666667e-01 
0.0000000e+00 3.0000000e+00 6.6666667e-01 
0.0000000e+00 3.3333333e+00 6.6666667e-01 
0.0000000e+00 3.6666667e+00 6.6666667e-01 
0.0000000e+00 4.0000000e+00 6.6666667e-01 
0.0000000e+00 4.3333333e+00 6.6666667e-01 
0.0000000e+00 4.6666667e+00 6.6666667e-01 
0.0000000e+00 3.3333333e-01 1.3333333e+00 
0.0000000e+00 6.6666667e-01 1.3333333e+00 
0.0000000e+00 1.0000000e+00 1.3333333e+00 
0.0000000e+00 1.3333333e+00 1.3333333e+00 
0.0000000e+00 1.6666667e+00 1.3333333e+00 
0.0000000e+00 2.0000000e+00 1.3333333e+00 
0.0000000e+00 2.3333333e+00 1.3333333e+00 
0.0000000e+00 2.6666667e+00 1.3333333e+00 
0.0000000e+00 3.0000000e+00 1.3333333e+00 
0.0000000e+00 3.3333333e+00 1.3333333e+00 
0.0000000e+00 3.6666667e+00 1.3333333e+00 
0.0000000e+00 4.0000000e+00 1.3333333e+00 
0.0000000e+00 4.3333333e+00 1.3333333e+00 
0.0000000e+00 4.6666667e+00 1.3333333e+00 
0.0000000e+00 3.3333333e-01 2.0000000e+00 
0.0000000e+00 6.6666667e-01 2.0000000e+00 
0.0000000e+00 1.0000000e+00 2.0000000e+00 
0.0000000e+00 1.3333333e+00 2.0000000e+00 
0.0000000e+00 1.6666667e+00 2.0000000e+00 
0.0000000e+00 2.0000000e+00 2.0000000e+00 
0.0000000e+00 2.3333333e+00 2.0000000e+00 
0.0000000e+00 2.6666667e+00 2.0000000e+00 
0.0000000e+00 3.0000000e+00 2.0000000e+00 
0.0000000e+00 3.3333333e+00 2.0000000e+00 
0.0000000e+00 3.6666667e+00 2.0000000e+00 
0.0000000e+00 4.0000000e+00 2.0000000e+00 
0.0000000e+00 4.3333333e+00 2.0000000e+00 
0.0000000e+00 4.6666667e+00 2.0000000e+00 
0.0000000e+00 3.3333333e-01 2.6666667e+00 
0.0000000e+00 6.6666667e-01 2.6666667e+00 
0.0000000e+00 1.0000000e+00 2.6666667e+00 
0.0000000e+00 1.3333333e+00 2.6666667e+00 
0.0000000e+00 1.6666667e+00 2.6666667e+00 
0.0000000e+00 2.0000000e+00 2.6666667e+00 
0.0000000e+00 2.3333333e+00 2.6666667e+00 
0.0000000e+00 2.6666667e+00 2.6666667e+00 
0.0000000e+00 3.0000000e+00 2.6666667e+00 
0.0000000e+00 3.3333333e+00 2.6666667e+00 
0.0000000e+00 3.6666667e+00 2.6666667e+00 
0.0000000e+00 4.0000000e+00 2.6666667e+00 
[...]
POINT_DATA 4096
FIELD FieldData 2
DISPLACEMENT 3 4096  float
-4.4597448e-08 2.3149624e-05 7.4792270e-06 
0.0000000e+00 0.0000000e+00 0.0000000e+00 
4.4597448e-08 2.3149624e-05 -7.4792270e-06 
0.0000000e+00 0.0000000e+00 0.0000000e+00 
4.4597448e-08 2.3149624e-05 7.4792270e-06 
0.0000000e+00 0.0000000e+00 0.0000000e+00 
-4.4597448e-08 2.3149624e-05 -7.4792270e-06 
0.0000000e+00 0.0000000e+00 0.0000000e+00 
3.9909417e-07 5.7875389e-07 1.0570192e-06 
3.7868008e-07 1.1752687e-06 1.8586406e-06 
3.4835243e-07 1.9891365e-06 2.6566325e-06 
3.1532052e-07 2.9959123e-06 3.4039363e-06 
2.8640394e-07 4.1916738e-06 4.0901815e-06 
2.5808356e-07 5.5609373e-06 4.7119015e-06 
2.2964702e-07 7.0875085e-06 5.2684099e-06 
2.0102692e-07 8.7538751e-06 5.7595807e-06 
1.7243834e-07 1.0542366e-05 6.1854264e-06 
1.4423774e-07 1.2435076e-05 6.5463083e-06 
1.1724934e-07 1.4414181e-05 6.8433224e-06 
9.2485580e-08 1.6461932e-05 7.0791257e-06 
7.1190411e-08 1.8568208e-05 7.2591891e-06 
4.0051904e-08 2.0733558e-05 7.3986683e-06 
-3.6184129e-08 2.3081238e-05 6.3304712e-06 
-4.5452285e-08 2.3014423e-05 5.2653478e-06 
-4.6549862e-08 2.2953579e-05 4.2493938e-06 
-4.1608100e-08 2.2900496e-05 3.2701658e-06 
-3.2370830e-08 2.2858073e-05 2.3175813e-06 
-2.0412995e-08 2.2828528e-05 1.3833602e-06 
-6.9620609e-09 2.2813374e-05 4.5993165e-07 
6.9620609e-09 2.2813374e-05 -4.5993165e-07 
2.0412995e-08 2.2828528e-05 -1.3833602e-06 
3.2370830e-08 2.2858073e-05 -2.3175813e-06 
4.1608100e-08 2.2900496e-05 -3.2701658e-06 
4.6549862e-08 2.2953579e-05 -4.2493938e-06 
4.5452285e-08 2.3014423e-05 -5.2653478e-06 
3.6184129e-08 2.3081238e-05 -6.3304712e-06 
-3.9909417e-07 5.7875389e-07 -1.0570192e-06 
-3.7868008e-07 1.1752687e-06 -1.8586406e-06 
-3.4835243e-07 1.9891365e-06 -2.6566325e-06 
-3.1532052e-07 2.9959123e-06 -3.4039363e-06 
-2.8640394e-07 4.1916738e-06 -4.0901815e-06 
-2.5808356e-07 5.5609373e-06 -4.7119015e-06 
-2.2964702e-07 7.0875085e-06 -5.2684099e-06 
-2.0102692e-07 8.7538751e-06 -5.7595807e-06 
-1.7243834e-07 1.0542366e-05 -6.1854264e-06 
-1.4423774e-07 1.2435076e-05 -6.5463083e-06 
-1.1724934e-07 1.4414181e-05 -6.8433224e-06 
-9.2485580e-08 1.6461932e-05 -7.0791257e-06 
-7.1190411e-08 1.8568208e-05 -7.2591891e-06 
-4.0051904e-08 2.0733558e-05 -7.3986683e-06 
0.0000000e+00 0.0000000e+00 0.0000000e+00 
0.0000000e+00 0.0000000e+00 0.0000000e+00 
0.0000000e+00 0.0000000e+00 0.0000000e+00 
0.0000000e+00 0.0000000e+00 0.0000000e+00 
0.0000000e+00 0.0000000e+00 0.0000000e+00 
0.0000000e+00 0.0000000e+00 0.0000000e+00 
0.0000000e+00 0.0000000e+00 0.0000000e+00 
0.0000000e+00 0.0000000e+00 0.0000000e+00 
0.0000000e+00 0.0000000e+00 0.0000000e+00 
0.0000000e+00 0.0000000e+00 0.0000000e+00 
0.0000000e+00 0.0000000e+00 0.0000000e+00 
0.0000000e+00 0.0000000e+00 0.0000000e+00 
0.0000000e+00 0.0000000e+00 0.0000000e+00 
0.0000000e+00 0.0000000e+00 0.0000000e+00 
-3.9909417e-07 5.7875389e-07 1.0570192e-06 
-3.7868008e-07 1.1752687e-06 1.8586406e-06 
-3.4835243e-07 1.9891365e-06 2.6566325e-06 
-3.1532052e-07 2.9959123e-06 3.4039363e-06 
-2.8640394e-07 4.1916738e-06 4.0901815e-06 
-2.5808356e-07 5.5609373e-06 4.7119015e-06 
-2.2964702e-07 7.0875085e-06 5.2684099e-06 
-2.0102692e-07 8.7538751e-06 5.7595807e-06 
-1.7243834e-07 1.0542366e-05 6.1854264e-06 
-1.4423774e-07 1.2435076e-05 6.5463083e-06 
-1.1724934e-07 1.4414181e-05 6.8433224e-06 
-9.2485580e-08 1.6461932e-05 7.0791257e-06 
-7.1190411e-08 1.8568208e-05 7.2591891e-06 
-4.0051904e-08 2.0733558e-05 7.3986683e-06 
3.6184129e-08 2.3081238e-05 6.3304712e-06 
4.5452285e-08 2.3014423e-05 5.2653478e-06 
4.6549862e-08 2.2953579e-05 4.2493938e-06 
4.1608100e-08 2.2900496e-05 3.2701658e-06 
3.2370830e-08 2.2858073e-05 2.3175813e-06 
2.0412995e-08 2.2828528e-05 1.3833602e-06 
6.9620609e-09 2.2813374e-05 4.5993165e-07 
-6.9620609e-09 2.2813374e-05 -4.5993165e-07 
-2.0412995e-08 2.2828528e-05 -1.3833602e-06 
-3.2370830e-08 2.2858073e-05 -2.3175813e-06 
-4.1608100e-08 2.2900496e-05 -3.2701658e-06 
-4.6549862e-08 2.2953579e-05 -4.2493938e-06 
-4.5452285e-08 2.3014423e-05 -5.2653478e-06 
-3.6184129e-08 2.3081238e-05 -6.3304712e-06 
3.9909417e-07 5.7875389e-07 -1.0570192e-06 
3.7868008e-07 1.1752687e-06 -1.8586406e-06 
3.4835243e-07 1.9891365e-06 -2.6566325e-06 
3.1532052e-07 2.9959123e-06 -3.4039363e-06 
2.8640394e-07 4.1916738e-06 -4.0901815e-06 
2.5808356e-07 5.5609373e-06 -4.7119015e-06 
2.2964702e-07 7.0875085e-06 -5.2684099e-06 
2.0102692e-07 8.7538751e-06 -5.7595807e-06 
1.7243834e-07 1.0542366e-05 -6.1854264e-06 
1.4423774e-07 1.2435076e-05 -6.5463083e-06 
1.1724934e-07 1.4414181e-05 -6.8433224e-06 
9.2485580e-08 1.6461932e-05 -7.0791257e-06 
7.1190411e-08 1.8568208e-05 -7.2591891e-06 
4.0051904e-08 2.0733558e-05 -7.3986683e-06 
0.0000000e+00 0.0000000e+00 0.0000000e+00 
0.0000000e+00 0.0000000e+00 0.0000000e+00 
0.0000000e+00 0.0000000e+00 0.0000000e+00 
0.0000000e+00 0.0000000e+00 0.0000000e+00 
0.0000000e+00 0.0000000e+00 0.0000000e+00 
0.0000000e+00 0.0000000e+00 0.0000000e+00 
0.0000000e+00 0.0000000e+00 0.0000000e+00 
0.0000000e+00 0.0000000e+00 0.0000000e+00 
0.0000000e+00 0.0000000e+00 0.0000000e+00 
0.0000000e+00 0.0000000e+00 0.0000000e+00 
0.0000000e+00 0.0000000e+00 0.0000000e+00 
0.0000000e+00 0.0000000e+00 0.0000000e+00 
0.0000000e+00 0.0000000e+00 0.0000000e+00 
0.0000000e+00 0.0000000e+00 0.0000000e+00 
0.0000000e+00 0.0000000e+00 0.0000000e+00 
0.0000000e+00 0.0000000e+00 0.0000000e+00 
0.0000000e+00 0.0000000e+00 0.0000000e+00 
0.0000000e+00 0.0000000e+00 0.0000000e+00 
0.0000000e+00 0.0000000e+00 0.0000000e+00 
0.0000000e+00 0.0000000e+00 0.0000000e+00 
0.0000000e+00 0.0000000e+00 0.0000000e+00 
0.0000000e+00 0.0000000e+00 0.0000000e+00 
0.0000000e+00 0.0000000e+00 0.0000000e+00 
0.0000000e+00 0.0000000e+00 0.0000000e+00 
0.0000000e+00 0.0000000e+00 0.0000000e+00 
0.0000000e+00 0.0000000e+00 0.0000000e+00 
0.0000000e+00 0.0000000e+00 0.0000000e+00 
0.0000000e+00 0.0000000e+00 0.0000000e+00 
-3.8324890e-08 2.3125605e-05 7.4913316e-06 
-3.1401527e-08 2.3115106e-05 7.4964882e-06 
-2.4642749e-08 2.3108774e-05 7.4993978e-06 
-1.8434354e-08 2.3104633e-05 7.5012393e-06 
-1.2763838e-08 2.3101902e-05 7.5024304e-06 
-7.4968417e-09 2.3100220e-05 7.5031536e-06 
-2.4721912e-09 2.3099413e-05 7.5034966e-06 
2.4721912e-09 2.3099413e-05 7.5034966e-06 
7.4968417e-09 2.3100220e-05 7.5031536e-06 
1.2763838e-08 2.3101902e-05 7.5024304e-06 
1.8434354e-08 2.3104633e-05 7.5012393e-06 
2.4642749e-08 2.3108774e-05 7.4993978e-06 
3.1401527e-08 2.3115106e-05 7.4964882e-06 
3.8324890e-08 2.3125605e-05 7.4913316e-06 
0.0000000e+00 0.0000000e+00 0.0000000e+00 
0.0000000e+00 0.0000000e+00 0.0000000e+00 
0.0000000e+00 0.0000000e+00 0.0000000e+00 
0.0000000e+00 0.0000000e+00 0.0000000e+00 
0.0000000e+00 0.0000000e+00 0.0000000e+00 
0.0000000e+00 0.0000000e+00 0.0000000e+00 
0.0000000e+00 0.0000000e+00 0.0000000e+00 
0.0000000e+00 0.0000000e+00 0.0000000e+00 
0.0000000e+00 0.0000000e+00 0.0000000e+00 
0.0000000e+00 0.0000000e+00 0.0000000e+00 
0.0000000e+00 0.0000000e+00 0.0000000e+00 
0.0000000e+00 0.0000000e+00 0.0000000e+00 
0.0000000e+00 0.0000000e+00 0.0000000e+00 
0.0000000e+00 0.0000000e+00 0.0000000e+00 
3.8324890e-08 2.3125605e-05 -7.4913316e-06 
3.1401527e-08 2.3115106e-05 -7.4964882e-06 
2.4642749e-08 2.3108774e-05 -7.4993978e-06 
1.8434354e-08 2.3104633e-05 -7.5012393e-06 
1.2763838e-08 2.3101902e-05 -7.5024304e-06 
7.4968417e-09 2.3100220e-05 -7.5031536e-06 
2.4721912e-09 2.3099413e-05 -7.5034966e-06 
-2.4721912e-09 2.3099413e-05 -7.5034966e-06 
-7.4968417e-09 2.3100220e-05 -7.5031536e-06 
-1.2763838e-08 2.3101902e-05 -7.5024304e-06 
-1.8434354e-08 2.3104633e-05 -7.5012393e-06 
-2.4642749e-08 2.3108774e-05 -7.4993978e-06 
-3.1401527e-08 2.3115106e-05 -7.4964882e-06 
-3.8324890e-08 2.3125605e-05 -7.4913316e-06 
3.3724365e-07 4.3718240e-07 7.9812596e-07 
2.8697633e-07 3.4786007e-07 6.3145099e-07 
2.3520023e-07 2.8972428e-07 4.9538104e-07 
1.8277615e-07 2.5183501e-07 3.7462679e-07 
1.3027894e-07 2.2761989e-07 2.6262778e-07 
7.8009919e-08 2.1322747e-07 1.5575962e-07 
2.5972358e-08 2.0651395e-07 5.1631584e-08 
-2.5972358e-08 2.0651395e-07 -5.1631584e-08 
-7.8009919e-08 2.1322747e-07 -1.5575962e-07 
-1.3027894e-07 2.2761989e-07 -2.6262778e-07 
-1.8277615e-07 2.5183501e-07 -3.7462679e-07 
-2.3520023e-07 2.8972428e-07 -4.9538104e-07 
-2.8697633e-07 3.4786007e-07 -6.3145099e-07 
-3.3724365e-07 4.3718240e-07 -7.9812596e-07 
3.3214583e-07 1.0698061e-06 1.5255468e-06 
2.8284493e-07 9.7034950e-07 1.2239810e-06 
2.3315832e-07 8.9128149e-07 9.6216335e-07 
1.8230319e-07 8.3262748e-07 7.2680105e-07 
1.3062308e-07 7.9177896e-07 5.0864367e-07 
7.8496129e-08 7.6611783e-07 3.0125236e-07 
2.6181550e-08 7.5376379e-07 9.9786337e-08 
-2.6181550e-08 7.5376379e-07 -9.9786337e-08 
-7.8496129e-08 7.6611783e-07 -3.0125236e-07 
-1.3062308e-07 7.9177896e-07 -5.0864367e-07 
-1.8230319e-07 8.3262748e-07 -7.2680105e-07 
-2.3315832e-07 8.9128149e-07 -9.6216335e-07 
-2.8284493e-07 9.7034950e-07 -1.2239810e-06 
-3.3214583e-07 1.0698061e-06 -1.5255468e-06 
3.0060155e-07 1.8835028e-06 2.2208441e-06 
2.5625440e-07 1.7937968e-06 1.8197255e-06 
2.1086443e-07 1.7174298e-06 1.4469969e-06 
1.6477821e-07 1.6566418e-06 1.0999343e-06 
1.1809056e-07 1.6118324e-06 7.7241106e-07 
7.1001277e-08 1.5825164e-06 4.5828248e-07 
2.3690120e-08 1.5680582e-06 1.5191485e-07 
-2.3690120e-08 1.5680582e-06 -1.5191485e-07 
-7.1001277e-08 1.5825164e-06 -4.5828248e-07 
-1.1809056e-07 1.6118324e-06 -7.7241106e-07 
-1.6477821e-07 1.6566418e-06 -1.0999343e-06 
-2.1086443e-07 1.7174298e-06 -1.4469969e-06 
-2.5625440e-07 1.7937968e-06 -1.8197255e-06 
-3.0060155e-07 1.8835028e-06 -2.2208441e-06 
2.7235189e-07 2.8994483e-06 2.8714915e-06 
2.3066669e-07 2.8159425e-06 2.3721899e-06 
1.8925474e-07 2.7460308e-06 1.9012704e-06 
1.4760899e-07 2.6896166e-06 1.4537265e-06 
1.0567082e-07 2.6471388e-06 1.0248950e-06 
6.3498583e-08 2.6188155e-06 6.0954761e-07 
2.1182202e-08 2.6046701e-06 2.0228600e-07 
-2.1182202e-08 2.6046701e-06 -2.0228600e-07 
-6.3498583e-08 2.6188155e-06 -6.0954761e-07 
-1.0567082e-07 2.6471388e-06 -1.0248950e-06 
-1.4760899e-07 2.6896166e-06 -1.4537265e-06 
-1.8925474e-07 2.7460308e-06 -1.9012704e-06 
-2.3066669e-07 2.8159425e-06 -2.3721899e-06 
-2.7235189e-07 2.8994483e-06 -2.8714915e-06 
2.4677255e-07 4.1035398e-06 3.4672437e-06 
2.0883737e-07 4.0278070e-06 2.8777215e-06 
1.7094202e-07 3.9642610e-06 2.3159752e-06 
1.3309570e-07 3.9131704e-06 1.7771898e-06 
9.5170044e-08 3.8746463e-06 1.2563947e-06 
5.7149116e-08 3.8488586e-06 7.4859706e-07 
1.9058015e-08 3.8359347e-06 2.4865638e-07 
-1.9058015e-08 3.8359347e-06 -2.4865638e-07 
-5.7149116e-08 3.8488586e-06 -7.4859706e-07 
-9.5170044e-08 3.8746463e-06 -1.2563947e-06 
-1.3309570e-07 3.9131704e-06 -1.7771898e-06 
-1.7094202e-07 3.9642610e-06 -2.3159752e-06 
-2.0883737e-07 4.0278070e-06 -2.8777215e-06 
-2.4677255e-07 4.1035398e-06 -3.4672437e-06 
2.2225640e-07 5.4816736e-06 4.0063864e-06 
1.8791080e-07 5.4135578e-06 3.3344537e-06 
1.5372635e-07 5.3565615e-06 2.6902787e-06 
1.1959552e-07 5.3107822e-06 2.0687837e-06 
8.5458218e-08 5.2763321e-06 1.4649930e-06 
5.1293040e-08 5.2532994e-06 8.7389703e-07 
1.7101134e-08 5.2417611e-06 2.9044745e-07 
-1.7101134e-08 5.2417611e-06 -2.9044745e-07 
-5.1293040e-08 5.2532994e-06 -8.7389703e-07 
-8.5458218e-08 5.2763321e-06 -1.4649930e-06 
-1.1959552e-07 5.3107822e-06 -2.0687837e-06 
-1.5372635e-07 5.3565615e-06 -2.6902787e-06 
-1.8791080e-07 5.4135578e-06 -3.3344537e-06 
-2.2225640e-07 5.4816736e-06 -4.0063864e-06 
1.9772459e-07 7.0170297e-06 4.4887473e-06 
1.6714458e-07 6.9565306e-06 3.7428188e-06 
1.3669720e-07 6.9059568e-06 3.0246342e-06 
1.0632360e-07 6.8654074e-06 2.3290523e-06 
7.5956124e-08 6.8349352e-06 1.6510380e-06 
4.5580654e-08 6.8145906e-06 9.8558951e-07 
1.5194934e-08 6.8044089e-06 3.2769031e-07 
-1.5194934e-08 6.8044089e-06 -3.2769031e-07 
-4.5580654e-08 6.8145906e-06 -9.8558951e-07 
-7.5956124e-08 6.8349352e-06 -1.6510380e-06 
-1.0632360e-07 6.8654074e-06 -2.3290523e-06 
-1.3669720e-07 6.9059568e-06 -3.0246342e-06 
-1.6714458e-07 6.9565306e-06 -3.7428188e-06 
-1.9772459e-07 7.0170297e-06 -4.4887473e-06 
1.7309530e-07 8.6922003e-06 4.9144644e-06 
1.4632418e-07 8.6392754e-06 4.1031075e-06 
1.1966814e-07 8.5950866e-06 3.3194832e-06 
9.3070550e-08 8.5597104e-06 2.5584280e-06 
6.6482787e-08 8.5331748e-06 1.8149070e-06 
3.9892690e-08 8.5154864e-06 1.0839226e-06 
1.3298145e-08 8.5066440e-06 3.6047002e-07 
-1.3298145e-08 8.5066440e-06 -3.6047002e-07 
-3.9892690e-08 8.5154864e-06 -1.0839226e-06 
-6.6482787e-08 8.5331748e-06 -1.8149070e-06 
-9.3070550e-08 8.5597104e-06 -2.5584280e-06 
-1.1966814e-07 8.5950866e-06 -3.3194832e-06 
-1.4632418e-07 8.6392754e-06 -4.1031075e-06 
-1.7309530e-07 8.6922003e-06 -4.9144644e-06 
1.4849651e-07 1.0489467e-05 5.2836233e-06 
1.2553593e-07 1.0444126e-05 4.4154419e-06 
1.0265515e-07 1.0406362e-05 3.5749232e-06 
7.9824189e-08 1.0376245e-05 2.7569746e-06 
5.7006972e-08 1.0353747e-05 1.9566250e-06 
3.4199393e-08 1.0338807e-05 1.1689018e-06 
1.1398841e-08 1.0331359e-05 3.8878649e-07 
-1.1398841e-08 1.0331359e-05 -3.8878649e-07 
-3.4199393e-08 1.0338807e-05 -1.1689018e-06 
-5.7006972e-08 1.0353747e-05 -1.9566250e-06 
-7.9824189e-08 1.0376245e-05 -2.7569746e-06 
-1.0265515e-07 1.0406362e-05 -3.5749232e-06 
-1.2553593e-07 1.0444126e-05 -4.4154419e-06 
-1.4849651e-07 1.0489467e-05 -5.2836233e-06 
1.2419671e-07 1.2390927e-05 5.5965044e-06 
1.0491354e-07 1.2353212e-05 4.6798685e-06 
8.5708559e-08 1.2322088e-05 3.7907273e-06 
6.6561748e-08 1.2297544e-05 2.9242844e-06 
4.7473690e-08 1.2279440e-05 2.0757386e-06 
2.8450612e-08 1.2267553e-05 1.2401795e-06 
9.4773352e-09 1.2261671e-05 4.1251054e-07 
-9.4773352e-09 1.2261671e-05 -4.1251054e-07 
-2.8450612e-08 1.2267553e-05 -1.2401795e-06 
-4.7473690e-08 1.2279440e-05 -2.0757386e-06 
-6.6561748e-08 1.2297544e-05 -2.9242844e-06 
-8.5708559e-08 1.2322088e-05 -3.7907273e-06 
-1.0491354e-07 1.2353212e-05 -4.6798685e-06 
-1.2419671e-07 1.2390927e-05 -5.5965044e-06 
1.0060446e-07 1.4378558e-05 5.8537800e-06 
8.4659564e-08 1.4348706e-05 4.8962083e-06 
6.8772629e-08 1.4324687e-05 3.9660329e-06 
5.3088937e-08 1.4306433e-05 3.0590719e-06 
3.7666413e-08 1.4293442e-05 2.1709849e-06 
2.2487546e-08 1.4285145e-05 1.2968663e-06 
7.4760633e-09 1.4281110e-05 4.3132498e-07 
-7.4760633e-09 1.4281110e-05 -4.3132498e-07 
-2.2487546e-08 1.4285145e-05 -1.2968663e-06 
-3.7666413e-08 1.4293442e-05 -2.1709849e-06 
-5.3088937e-08 1.4306433e-05 -3.0590719e-06 
-6.8772629e-08 1.4324687e-05 -3.9660329e-06 
-8.4659564e-08 1.4348706e-05 -4.8962083e-06 
-1.0060446e-07 1.4378558e-05 -5.8537800e-06 
7.8396464e-08 1.6435060e-05 6.0562575e-06 
6.4500212e-08 1.6413245e-05 5.0634992e-06 
5.1156482e-08 1.6397461e-05 4.0983210e-06 
3.8649935e-08 1.6386552e-05 3.1585942e-06 
2.6945206e-08 1.6379290e-05 2.2401629e-06 
1.5888220e-08 1.6374838e-05 1.3375983e-06 
5.2482574e-09 1.6372717e-05 4.4477307e-07 
-5.2482574e-09 1.6372717e-05 -4.4477307e-07 
-1.5888220e-08 1.6374838e-05 -1.3375983e-06 
-2.6945206e-08 1.6379290e-05 -2.2401629e-06 
-3.8649935e-08 1.6386552e-05 -3.1585942e-06 
-5.1156482e-08 1.6397461e-05 -4.0983210e-06 
-6.4500212e-08 1.6413245e-05 -5.0634992e-06 
-7.8396464e-08 1.6435060e-05 -6.0562575e-06 
5.5210909e-08 1.8547817e-05 6.2048057e-06 
4.1643660e-08 1.8536505e-05 5.1770634e-06 
3.0369059e-08 1.8529614e-05 4.1831705e-06 
2.1139368e-08 1.8524708e-05 3.2200764e-06 
1.3714283e-08 1.8520990e-05 2.2819316e-06 
7.6657926e-09 1.8518360e-05 1.3618802e-06 
2.4610560e-09 1.8516975e-05 4.5274516e-07 
-2.4610560e-09 1.8516975e-05 -4.5274516e-07 
-7.6657926e-09 1.8518360e-05 -1.3618802e-06 
-1.3714283e-08 1.8520990e-05 -2.2819316e-06 
-2.1139368e-08 1.8524708e-05 -3.2200764e-06 
-3.0369059e-08 1.8529614e-05 -4.1831705e-06 
-4.1643660e-08 1.8536505e-05 -5.1770634e-06 
-5.5210909e-08 1.8547817e-05 -6.2048057e-06 
2.1469589e-08 2.0730623e-05 6.2885607e-06 
9.9152864e-09 2.0724222e-05 5.2331133e-06 
1.2342360e-09 2.0713840e-05 4.2229629e-06 
-3.4043284e-09 2.0701961e-05 3.2487011e-06 
-4.7161079e-09 2.0690725e-05 2.3015760e-06 
-3.7128735e-09 2.0682072e-05 1.3734479e-06 
-1.3811836e-09 2.0677388e-05 4.5657324e-07 
1.3811836e-09 2.0677388e-05 -4.5657324e-07 
3.7128735e-09 2.0682072e-05 -1.3734479e-06 
4.7161079e-09 2.0690725e-05 -2.3015760e-06 
3.4043284e-09 2.0701961e-05 -3.2487011e-06 
-1.2342360e-09 2.0713840e-05 -4.2229629e-06 
-9.9152863e-09 2.0724222e-05 -5.2331133e-06 
-2.1469589e-08 2.0730623e-05 -6.2885607e-06 
-2.1469589e-08 2.0730623e-05 6.2885607e-06 
-9.9152863e-09 2.0724222e-05 5.2331133e-06 
-1.2342360e-09 2.0713840e-05 4.2229629e-06 
3.4043284e-09 2.0701961e-05 3.2487011e-06 
4.7161079e-09 2.0690725e-05 2.3015760e-06 
3.7128735e-09 2.0682072e-05 1.3734479e-06 
1.3811836e-09 2.0677388e-05 4.5657324e-07 
-1.3811836e-09 2.0677388e-05 -4.5657324e-07 
-3.7128735e-09 2.0682072e-05 -1.3734479e-06 
-4.7161079e-09 2.0690725e-05 -2.3015760e-06 
-3.4043284e-09 2.0701961e-05 -3.2487011e-06 
1.2342360e-09 2.0713840e-05 -4.2229629e-06 
9.9152864e-09 2.0724222e-05 -5.2331133e-06 
2.1469589e-08 2.0730623e-05 -6.2885607e-06 
-5.5210909e-08 1.8547817e-05 6.2048057e-06 
-4.1643660e-08 1.8536505e-05 5.1770634e-06 
-3.0369059e-08 1.8529614e-05 4.1831705e-06 
-2.1139368e-08 1.8524708e-05 3.2200764e-06 
-1.3714283e-08 1.8520990e-05 2.2819316e-06 
-7.6657926e-09 1.8518360e-05 1.3618802e-06 
-2.4610560e-09 1.8516975e-05 4.5274516e-07 
2.4610560e-09 1.8516975e-05 -4.5274516e-07 
7.6657926e-09 1.8518360e-05 -1.3618802e-06 
1.3714283e-08 1.8520990e-05 -2.2819316e-06 
2.1139368e-08 1.8524708e-05 -3.2200764e-06 
3.0369059e-08 1.8529614e-05 -4.1831705e-06 
4.1643660e-08 1.8536505e-05 -5.1770634e-06 
5.5210909e-08 1.8547817e-05 -6.2048057e-06 
-7.8396464e-08 1.6435060e-05 6.0562575e-06 
-6.4500212e-08 1.6413245e-05 5.0634992e-06 
-5.1156482e-08 1.6397461e-05 4.0983210e-06 
-3.8649935e-08 1.6386552e-05 3.1585942e-06 
-2.6945206e-08 1.6379290e-05 2.2401629e-06 
-1.5888220e-08 1.6374838e-05 1.3375983e-06 
-5.2482574e-09 1.6372717e-05 4.4477307e-07 
5.2482574e-09 1.6372717e-05 -4.4477307e-07 
1.5888220e-08 1.6374838e-05 -1.3375983e-06 
2.6945206e-08 1.6379290e-05 -2.2401629e-06 
3.8649935e-08 1.6386552e-05 -3.1585942e-06 
5.1156482e-08 1.6397461e-05 -4.0983210e-06 
6.4500212e-08 1.6413245e-05 -5.0634992e-06 
7.8396464e-08 1.6435060e-05 -6.0562575e-06 
-1.0060446e-07 1.4378558e-05 5.8537800e-06 
-8.4659564e-08 1.4348706e-05 4.8962083e-06 
-6.8772629e-08 1.4324687e-05 3.9660329e-06 
-5.3088937e-08 1.4306433e-05 3.0590719e-06 
-3.7666413e-08 1.4293442e-05 2.1709849e-06 
-2.2487546e-08 1.4285145e-05 1.2968663e-06 
-7.4760633e-09 1.4281110e-05 4.3132498e-07 
7.4760633e-09 1.4281110e-05 -4.3132498e-07 
2.2487546e-08 1.4285145e-05 -1.2968663e-06 
3.7666413e-08 1.4293442e-05 -2.1709849e-06 
5.3088937e-08 1.4306433e-05 -3.0590719e-06 
6.8772629e-08 1.4324687e-05 -3.9660329e-06 
8.4659564e-08 1.4348706e-05 -4.8962083e-06 
1.0060446e-07 1.4378558e-05 -5.8537800e-06 
-1.2419671e-07 1.2390927e-05 5.5965044e-06 
-1.0491354e-07 1.2353212e-05 4.6798685e-06 
-8.5708559e-08 1.2322088e-05 3.7907273e-06 
-6.6561748e-08 1.2297544e-05 2.9242844e-06 
-4.7473690e-08 1.2279440e-05 2.0757386e-06 
-2.8450612e-08 1.2267553e-05 1.2401795e-06 
-9.4773352e-09 1.2261671e-05 4.1251054e-07 
9.4773352e-09 1.2261671e-05 -4.1251054e-07 
2.8450612e-08 1.2267553e-05 -1.2401795e-06 
4.7473690e-08 1.2279440e-05 -2.0757386e-06 
6.6561748e-08 1.2297544e-05 -2.9242844e-06 
8.5708559e-08 1.2322088e-05 -3.7907273e-06 
1.0491354e-07 1.2353212e-05 -4.6798685e-06 
1.2419671e-07 1.2390927e-05 -5.5965044e-06 
-1.4849651e-07 1.0489467e-05 5.2836233e-06 
-1.2553593e-07 1.0444126e-05 4.4154419e-06 
-1.0265515e-07 1.0406362e-05 3.5749232e-06 
-7.9824189e-08 1.0376245e-05 2.7569746e-06 
-5.7006972e-08 1.0353747e-05 1.9566250e-06 
-3.4199393e-08 1.0338807e-05 1.1689018e-06 
-1.1398841e-08 1.0331359e-05 3.8878649e-07 
1.1398841e-08 1.0331359e-05 -3.8878649e-07 
3.4199393e-08 1.0338807e-05 -1.1689018e-06 
5.7006972e-08 1.0353747e-05 -1.9566250e-06 
7.9824189e-08 1.0376245e-05 -2.7569746e-06 
1.0265515e-07 1.0406362e-05 -3.5749232e-06 